TITLE = "*rcc3* ... CO2 example - leakage over fault in uncertain distance"
VARIABLES = "Time   [a] "  "PEST          1..."
ZONE T = "     1 DATA-PEST          1  "  I =     1
  0.100000000000E+01  0.000000000000E+00
ZONE T = "     1 SIM    0-PEST          1  "  I =     1
  0.100000000000E+01  0.000000000000E+00
ZONE T = "     2 SIM    0-tFault          FAULT"  I =    30
  0.100000000000E+01  0.849412883537E-24
  0.200000000000E+01  0.123371300804E-16
  0.300000000000E+01  0.107468843663E-12
  0.400000000000E+01  0.767260028688E-10
  0.500000000000E+01  0.844256370006E-08
  0.600000000000E+01  0.100798659460E-05
  0.700000000000E+01  0.791083962136E-04
  0.800000000000E+01  0.778749236006E-02
  0.900000000000E+01  0.183794791908E+00
  0.100000000000E+02  0.371382040049E+01
  0.110000000000E+02  0.391774147400E+02
  0.120000000000E+02  0.289850085239E+03
  0.130000000000E+02  0.159113945039E+04
  0.140000000000E+02  0.837227056374E+04
  0.150000000000E+02  0.404509506942E+05
  0.160000000000E+02  0.175018426584E+06
  0.170000000000E+02  0.952548647853E+06
  0.180000000000E+02  0.285655221897E+07
  0.190000000000E+02  0.146007609372E+08
  0.200000000000E+02  0.941058372605E+08
  0.210000000000E+02  0.264022412548E+09
  0.220000000000E+02  0.458313616130E+09
  0.230000000000E+02  0.548126407763E+09
  0.240000000000E+02  0.628290707186E+09
  0.250000000000E+02  0.683092292467E+09
  0.260000000000E+02  0.720820376983E+09
  0.270000000000E+02  0.751830514374E+09
  0.280000000000E+02  0.780505812336E+09
  0.290000000000E+02  0.808139477566E+09
  0.300000000000E+02  0.835249149794E+09
ZONE T = "     3 SIM    0-tRes            RESER"  I =    30
  0.100000000000E+01  0.787828325463E+09
  0.200000000000E+01  0.157304800742E+10
  0.300000000000E+01  0.235654202703E+10
  0.400000000000E+01  0.313913632478E+10
  0.500000000000E+01  0.392044281465E+10
  0.600000000000E+01  0.470089870723E+10
  0.700000000000E+01  0.548019058708E+10
  0.800000000000E+01  0.625868092176E+10
  0.900000000000E+01  0.703612049349E+10
  0.100000000000E+02  0.781285029866E+10
  0.110000000000E+02  0.858866300665E+10
  0.120000000000E+02  0.936392011457E+10
  0.130000000000E+02  0.101390470641E+11
  0.140000000000E+02  0.109135354716E+11
  0.150000000000E+02  0.116878586744E+11
  0.160000000000E+02  0.124624938741E+11
  0.170000000000E+02  0.132362796511E+11
  0.180000000000E+02  0.140094918141E+11
  0.190000000000E+02  0.147726553365E+11
  0.200000000000E+02  0.154680716022E+11
  0.210000000000E+02  0.160727912349E+11
  0.220000000000E+02  0.165764215197E+11
  0.230000000000E+02  0.169925126633E+11
  0.240000000000E+02  0.173504837333E+11
  0.250000000000E+02  0.176679499845E+11
  0.260000000000E+02  0.179613251124E+11
  0.270000000000E+02  0.182352551397E+11
  0.280000000000E+02  0.184913467290E+11
  0.290000000000E+02  0.187296220325E+11
  0.300000000000E+02  0.189529461602E+11
ZONE T = "     4 SIM    0-tCover          COVER"  I =    30
  0.100000000000E+01  0.446419564708E-08
  0.200000000000E+01  0.100309473197E-05
  0.300000000000E+01  0.172998835393E-04
  0.400000000000E+01  0.125886196575E-03
  0.500000000000E+01  0.546575871677E-03
  0.600000000000E+01  0.186646079549E-02
  0.700000000000E+01  0.522542215762E-02
  0.800000000000E+01  0.130333387680E-01
  0.900000000000E+01  0.284235562423E-01
  0.100000000000E+02  0.574580647475E-01
  0.110000000000E+02  0.113638623038E+00
  0.120000000000E+02  0.269466539000E+00
  0.130000000000E+02  0.110043252471E+01
  0.140000000000E+02  0.624195723876E+01
  0.150000000000E+02  0.347560314525E+02
  0.160000000000E+02  0.190820682035E+03
  0.170000000000E+02  0.102511635482E+04
  0.180000000000E+02  0.451003766353E+04
  0.190000000000E+02  0.201225272874E+05
  0.200000000000E+02  0.707994579480E+05
  0.210000000000E+02  0.118275843132E+07
  0.220000000000E+02  0.774399193820E+08
  0.230000000000E+02  0.342618924950E+09
  0.240000000000E+02  0.679125117996E+09
  0.250000000000E+02  0.959089294380E+09
  0.260000000000E+02  0.106361400617E+10
  0.270000000000E+02  0.112204154000E+10
  0.280000000000E+02  0.117518650066E+10
  0.290000000000E+02  0.122491744301E+10
  0.300000000000E+02  0.127084923088E+10
ZONE T = "     5 SIM    0-tCap            CAPRO"  I =    30
  0.100000000000E+01  0.111168850246E+07
  0.200000000000E+01  0.483200709822E+07
  0.300000000000E+01  0.102779874977E+08
  0.400000000000E+01  0.166236903128E+08
  0.500000000000E+01  0.242572006086E+08
  0.600000000000E+01  0.327413091090E+08
  0.700000000000E+01  0.423894296395E+08
  0.800000000000E+01  0.528390934961E+08
  0.900000000000E+01  0.643395326181E+08
  0.100000000000E+02  0.765497244754E+08
  0.110000000000E+02  0.896769882262E+08
  0.120000000000E+02  0.103359669007E+09
  0.130000000000E+02  0.117171417650E+09
  0.140000000000E+02  0.131616254861E+09
  0.150000000000E+02  0.146201023503E+09
  0.160000000000E+02  0.160371100889E+09
  0.170000000000E+02  0.174746959298E+09
  0.180000000000E+02  0.188567318038E+09
  0.190000000000E+02  0.202583605763E+09
  0.200000000000E+02  0.216551137010E+09
  0.210000000000E+02  0.229742046471E+09
  0.220000000000E+02  0.242816545587E+09
  0.230000000000E+02  0.255308909562E+09
  0.240000000000E+02  0.267199930399E+09
  0.250000000000E+02  0.278721984192E+09
  0.260000000000E+02  0.290022006631E+09
  0.270000000000E+02  0.300908336224E+09
  0.280000000000E+02  0.311396133308E+09
  0.290000000000E+02  0.321419749438E+09
  0.300000000000E+02  0.331130971158E+09
ZONE T = "     6 SIM    0-tWaste          WASTE"  I =    30
  0.100000000000E+01  0.373657260680E-42
  0.200000000000E+01  0.324825804532E-35
  0.300000000000E+01  0.477209156821E-31
  0.400000000000E+01  0.309096593679E-27
  0.500000000000E+01  0.204669360390E-24
  0.600000000000E+01  0.841132206339E-21
  0.700000000000E+01  0.327881147842E-18
  0.800000000000E+01  0.246492708191E-14
  0.900000000000E+01  0.309511232453E-12
  0.100000000000E+02  0.917217608137E-11
  0.110000000000E+02  0.186554402922E-08
  0.120000000000E+02  0.375244424948E-07
  0.130000000000E+02  0.210115846411E-06
  0.140000000000E+02  0.126562269315E-04
  0.150000000000E+02  0.460062059106E-02
  0.160000000000E+02  0.234782828376E-01
  0.170000000000E+02  0.208017236479E+00
  0.180000000000E+02  0.211503012267E+03
  0.190000000000E+02  0.580196488864E+03
  0.200000000000E+02  0.103060661400E+04
  0.210000000000E+02  0.195531069334E+04
  0.220000000000E+02  0.168880641253E+07
  0.230000000000E+02  0.705349961952E+07
  0.240000000000E+02  0.945128052339E+07
  0.250000000000E+02  0.110953671064E+08
  0.260000000000E+02  0.123453880949E+08
  0.270000000000E+02  0.133430525810E+08
  0.280000000000E+02  0.141718939134E+08
  0.290000000000E+02  0.149033666179E+08
  0.300000000000E+02  0.155831167768E+08
ZONE T = "     1 SIM    0-PEST          1  "  I =     1
  0.100000000000E+01  0.000000000000E+00
ZONE T = "     2 SIM    0-tFault          FAULT"  I =    30
  0.100000000000E+01  0.658750383274E-25
  0.200000000000E+01  0.147199870323E-17
  0.300000000000E+01  0.119473509809E-13
  0.400000000000E+01  0.561960751529E-11
  0.500000000000E+01  0.571563883659E-09
  0.600000000000E+01  0.412303845229E-07
  0.700000000000E+01  0.293252705527E-05
  0.800000000000E+01  0.127145346483E-03
  0.900000000000E+01  0.381581023717E-02
  0.100000000000E+02  0.648829746290E-01
  0.110000000000E+02  0.622308142847E+00
  0.120000000000E+02  0.488154589492E+01
  0.130000000000E+02  0.310175348796E+02
  0.140000000000E+02  0.171611035376E+03
  0.150000000000E+02  0.873323551826E+03
  0.160000000000E+02  0.395985868058E+04
  0.170000000000E+02  0.140178625787E+05
  0.180000000000E+02  0.455703504499E+05
  0.190000000000E+02  0.168330960859E+06
  0.200000000000E+02  0.519058698437E+06
  0.210000000000E+02  0.147844942697E+07
  0.220000000000E+02  0.343885602731E+07
  0.230000000000E+02  0.610503098483E+07
  0.240000000000E+02  0.249276765307E+08
  0.250000000000E+02  0.668316305905E+08
  0.260000000000E+02  0.154752598372E+09
  0.270000000000E+02  0.313341405312E+09
  0.280000000000E+02  0.520215189925E+09
  0.290000000000E+02  0.640837181722E+09
  0.300000000000E+02  0.701699160047E+09
ZONE T = "     3 SIM    0-tRes            RESER"  I =    30
  0.100000000000E+01  0.787834204984E+09
  0.200000000000E+01  0.157306493269E+10
  0.300000000000E+01  0.235671415110E+10
  0.400000000000E+01  0.313926445253E+10
  0.500000000000E+01  0.392073553344E+10
  0.600000000000E+01  0.470124269376E+10
  0.700000000000E+01  0.548073890652E+10
  0.800000000000E+01  0.625935211640E+10
  0.900000000000E+01  0.703714141269E+10
  0.100000000000E+02  0.781402444170E+10
  0.110000000000E+02  0.859032178574E+10
  0.120000000000E+02  0.936579308639E+10
  0.130000000000E+02  0.101404242809E+11
  0.140000000000E+02  0.109149289061E+11
  0.150000000000E+02  0.116896822995E+11
  0.160000000000E+02  0.124645891816E+11
  0.170000000000E+02  0.132398653490E+11
  0.180000000000E+02  0.140101604459E+11
  0.190000000000E+02  0.147821959603E+11
  0.200000000000E+02  0.155552660968E+11
  0.210000000000E+02  0.163249896775E+11
  0.220000000000E+02  0.170941242502E+11
  0.230000000000E+02  0.178648473708E+11
  0.240000000000E+02  0.186188874514E+11
  0.250000000000E+02  0.193467088036E+11
  0.260000000000E+02  0.200314237445E+11
  0.270000000000E+02  0.206454805104E+11
  0.280000000000E+02  0.211744004035E+11
  0.290000000000E+02  0.216375534035E+11
  0.300000000000E+02  0.220573152425E+11
ZONE T = "     4 SIM    0-tCover          COVER"  I =    30
  0.100000000000E+01  0.423061134284E-08
  0.200000000000E+01  0.937667239911E-06
  0.300000000000E+01  0.164484233137E-04
  0.400000000000E+01  0.118410331365E-03
  0.500000000000E+01  0.522097020335E-03
  0.600000000000E+01  0.177416674069E-02
  0.700000000000E+01  0.499481211440E-02
  0.800000000000E+01  0.123797885572E-01
  0.900000000000E+01  0.275011423013E-01
  0.100000000000E+02  0.564025945925E-01
  0.110000000000E+02  0.107655310186E+00
  0.120000000000E+02  0.194526828695E+00
  0.130000000000E+02  0.336362519228E+00
  0.140000000000E+02  0.559450340133E+00
  0.150000000000E+02  0.935189533313E+00
  0.160000000000E+02  0.179528073891E+01
  0.170000000000E+02  0.450341102609E+01
  0.180000000000E+02  0.157089755135E+02
  0.190000000000E+02  0.619173243781E+02
  0.200000000000E+02  0.228741490066E+03
  0.210000000000E+02  0.815057825962E+03
  0.220000000000E+02  0.281584332087E+04
  0.230000000000E+02  0.901405868684E+04
  0.240000000000E+02  0.262525013937E+05
  0.250000000000E+02  0.674907978500E+05
  0.260000000000E+02  0.148886344352E+06
  0.270000000000E+02  0.147887061317E+07
  0.280000000000E+02  0.393459846611E+08
  0.290000000000E+02  0.226323722428E+09
  0.300000000000E+02  0.517749521403E+09
ZONE T = "     5 SIM    0-tCap            CAPRO"  I =    30
  0.100000000000E+01  0.110580836806E+07
  0.200000000000E+01  0.481508052577E+07
  0.300000000000E+01  0.101058622231E+08
  0.400000000000E+01  0.164955607994E+08
  0.500000000000E+01  0.239644809853E+08
  0.600000000000E+01  0.323973222811E+08
  0.700000000000E+01  0.418411118274E+08
  0.800000000000E+01  0.521679313640E+08
  0.900000000000E+01  0.633186354180E+08
  0.100000000000E+02  0.753756065321E+08
  0.110000000000E+02  0.880183165945E+08
  0.120000000000E+02  0.101487062404E+09
  0.130000000000E+02  0.115795842120E+09
  0.140000000000E+02  0.130231077125E+09
  0.150000000000E+02  0.144416984386E+09
  0.160000000000E+02  0.158447014010E+09
  0.170000000000E+02  0.172050090535E+09
  0.180000000000E+02  0.185301093251E+09
  0.190000000000E+02  0.198725471861E+09
  0.200000000000E+02  0.212092381410E+09
  0.210000000000E+02  0.225026014014E+09
  0.220000000000E+02  0.237754421377E+09
  0.230000000000E+02  0.250364480555E+09
  0.240000000000E+02  0.263004133726E+09
  0.250000000000E+02  0.275252363458E+09
  0.260000000000E+02  0.287277539440E+09
  0.270000000000E+02  0.299084200810E+09
  0.280000000000E+02  0.310859184354E+09
  0.290000000000E+02  0.322507612114E+09
  0.300000000000E+02  0.334017651154E+09
ZONE T = "     6 SIM    0-tWaste          WASTE"  I =    30
  0.100000000000E+01  0.232747537674E-39
  0.200000000000E+01  0.834786385316E-33
  0.300000000000E+01  0.156238300776E-28
  0.400000000000E+01  0.808590569756E-25
  0.500000000000E+01  0.111234593290E-21
  0.600000000000E+01  0.280391463766E-18
  0.700000000000E+01  0.193872324840E-15
  0.800000000000E+01  0.256361121582E-12
  0.900000000000E+01  0.144136511194E-09
  0.100000000000E+02  0.181037716839E-07
  0.110000000000E+02  0.966241661661E-05
  0.120000000000E+02  0.478092012856E-03
  0.130000000000E+02  0.789705255167E-02
  0.140000000000E+02  0.322252046076E+00
  0.150000000000E+02  0.888805685088E+00
  0.160000000000E+02  0.211017437476E+01
  0.170000000000E+02  0.506992358619E+05
  0.180000000000E+02  0.541303619752E+07
  0.190000000000E+02  0.877033875594E+07
  0.200000000000E+02  0.109223987184E+08
  0.210000000000E+02  0.162453037640E+08
  0.220000000000E+02  0.213599992302E+08
  0.230000000000E+02  0.242944520925E+08
  0.240000000000E+02  0.277149471172E+08
  0.250000000000E+02  0.346401730505E+08
  0.260000000000E+02  0.388376938104E+08
  0.270000000000E+02  0.419954759690E+08
  0.280000000000E+02  0.454997004194E+08
  0.290000000000E+02  0.520386534872E+08
  0.300000000000E+02  0.574189881945E+08
